name: MESH
n: 41
m: 48
box constraints x: 64
solver: ALMSolver<LBFGSBSolver<?>>
status: MaxIter
outer iterations: 240
inner convergence failures: 64
initial penalty reduced: 0
penalty reduced: 20
elapsed time: 3.1543899999999998
ε: 1.0000000000000001e-05
δ: 324728.3070674761
inner:
  elapsed_time: 4906019910207253111
  iterations: 54440
‖Σ‖: 6.9282032302755088
‖x‖: 32522943.35232449
‖y‖: 29819993.762227397
f: -1057048067876.4871
counters:
  f: 94873
  grad_f: 94653
  g: 95093
  grad_g_prod: 94653
  grad_gi: 0
  hess_L_prod: 0
  hess_L: 0
