status: MaxIter
outer iterations: 200
inner iterations: 197000
inner convergence failures: 197
elapsed time: 4.712968
ε: 5.9094187954414915e+25
δ: 17875789280.769054
f: -3.1954386183183763e+17
counters:
  f: 811884
  grad_f: 602592
  g: 812284
  grad_g: 602592
linesearch failures: 1394
L-BFGS failures: 0
L-BFGS rejected: 119885
‖Σ‖: 1732083437190203.8
‖x‖: 47320493768.226891
‖y‖: 3.0961774390330976e+25
