status: MaxIter
outer iterations: 200
inner iterations: 197000
inner convergence failures: 197
elapsed time: 8.2356409999999993
ε: 280669120.32121962
δ: 8.0445548806262757e-05
f: -16.366370634561122
counters:
  f: 1825469
  grad_f: 699029
  g: 1825869
  grad_g: 699029
linesearch failures: 0
L-BFGS failures: 0
L-BFGS rejected: 0
‖Σ‖: 2653450204815210.5
‖x‖: 128.06879942972611
‖y‖: 105315099546.493
