status: MaxIter
outer iterations: 200
inner iterations: 197000
inner convergence failures: 197
elapsed time: 3.192453
ε: 3508602.4502469352
δ: 9.9920072216264089e-16
f: -3077572788469699.5
counters:
  f: 447014
  grad_f: 416157
  g: 447414
  grad_g: 416157
linesearch failures: 0
L-BFGS failures: 0
L-BFGS rejected: 19065
‖Σ‖: 4371251199900802.5
‖x‖: 1754301225.1234677
‖y‖: 1600138332.8325427
