solver: ALMSolver<LBFGSSolver<?>>
status: NotFinite
outer iterations: 3
inner iterations: 3
inner convergence failures: 1
elapsed time: 0.00097300000000000002
ε: 0.0010000000000000002
δ: 0.41047867800522875
f: -0.97734010304166596
counters:
  f: 93
  grad_f: 89
  g: 97
  grad_g: 89
linesearch failures: 0
L-BFGS failures: 0
L-BFGS rejected: 0
‖Σ‖: 9.4339811320566032
‖x‖: 31.900002980440131
‖y‖: 1.1521400513728239
