solver: ALMSolver<LBFGSBSolver<?>>
status: NotFinite
outer iterations: 3
inner iterations: 3
inner convergence failures: 1
elapsed time: 0.0072880000000000002
ε: 0.0010000000000000002
δ: 3105.1760203435915
f: -27619153.648098554
counters:
  f: 89
  grad_f: 85
  g: 93
  grad_g: 85
linesearch failures: 0
L-BFGS failures: 0
L-BFGS rejected: 0
‖Σ‖: 6.9282032302755088
‖x‖: 166196.72245793563
‖y‖: 6372.1628122904813
