status: MaxIter
outer iterations: 200
inner iterations: 197000
inner convergence failures: 197
elapsed time: 3.5036420000000001
ε: 23892407.646087214
δ: 2.6645352591003757e-15
f: -1.4271178578170171e+17
counters:
  f: 537859
  grad_f: 462881
  g: 538259
  grad_g: 462881
linesearch failures: 3
L-BFGS failures: 0
L-BFGS rejected: 0
‖Σ‖: 24339960800217.301
‖x‖: 11946203823.043608
‖y‖: 1570787615.9697216
