solver: ALMSolver<PANOCSolver<SpecializedLBFGS>>
status: MaxIter
outer iterations: 200
inner iterations: 197000
inner convergence failures: 197
elapsed time: 3.3824610000000002
ε: 3175380.8426985694
δ: 3.7050757277494277e-08
f: -2520760874044269.5
counters:
  f: 494927
  grad_f: 439632
  g: 495327
  grad_g: 439632
linesearch failures: 0
L-BFGS failures: 0
L-BFGS rejected: 17506
‖Σ‖: 4578565560858199
‖x‖: 1587690421.3492849
‖y‖: 2055803312.1032569
