name: MESH
n: 41
m: 48
box constraints x: 64
solver: ALMSolver<PANOCSolver<LBFGS>>
status: MaxIter
outer iterations: 240
inner convergence failures: 236
initial penalty reduced: 0
penalty reduced: 20
elapsed time: 6.6728180000000004
ε: 26418950929273876
δ: 11238966191.783806
inner:
  elapsed_time: 140127609671616
  iterations: 236000
  linesearch_failures: 106507
  lbfgs_failures: 0
  lbfgs_rejected: 13455
  τ_1_accepted: 92173
  sum_τ: 101401.9296875
  count_τ: 235764
‖Σ‖: 134.72389565247397
‖x‖: 4530413.8529763939
‖y‖: 57677798282.892677
f: -58738811.005049564
counters:
  f: 2289039
  grad_f: 1324120
  g: 2289499
  grad_g_prod: 1324120
  grad_gi: 0
  hess_L_prod: 0
  hess_L: 0
