name: MESH
n: 41
m: 48
box constraints x: 64
solver: ALMSolver<SecondOrderPANOCSolverLBFGS>
status: MaxIter
outer iterations: 240
inner convergence failures: 39
initial penalty reduced: 0
penalty reduced: 20
elapsed time: 1.397016
ε: 3.2626081849460256e-06
δ: 1
inner:
  elapsed_time: 140127604395948
  iterations: 38723
  linesearch_failures: 15006
  lbfgs_failures: 846
  lbfgs_rejected: 0
  τ_1_accepted: 13533
  sum_τ: 15833.2109375
  count_τ: 38486
‖Σ‖: 692.8203230275509
‖x‖: 1e+20
‖y‖: 3983791730.6397171
f: -1.0000000000000001e+37
counters:
  f: 419286
  grad_f: 245058
  g: 458231
  grad_g_prod: 245058
  grad_gi: 0
  hess_L_prod: 0
  hess_L: 0
