name: MESH
n: 41
m: 48
box constraints x: 64
solver: ALMSolver<PANOCSolver<LBFGS>>
status: MaxIter
outer iterations: 240
inner convergence failures: 236
initial penalty reduced: 0
penalty reduced: 20
elapsed time: 7.1993410000000004
ε: 71394164.386717588
δ: 104810.85020379697
inner:
  elapsed_time: 139706703402892
  iterations: 236000
  linesearch_failures: 113178
  lbfgs_failures: 0
  lbfgs_rejected: 4233
  τ_1_accepted: 85243
  sum_τ: 93975.359375
  count_τ: 235764
‖Σ‖: 134.72389565247397
‖x‖: 298361.7780684894
‖y‖: 561742504.20361865
f: -10961731.793975344
counters:
  f: 2400744
  grad_f: 1376057
  g: 2401204
  grad_g_prod: 1376057
  grad_gi: 0
  hess_L_prod: 0
  hess_L: 0
