name: MESH
n: 41
m: 48
box constraints x: 64
solver: ALMSolver<SecondOrderPANOCSolverLBFGS>
status: MaxIter
outer iterations: 240
inner convergence failures: 26
initial penalty reduced: 0
penalty reduced: 20
elapsed time: 0.48096899999999998
ε: 5.2130461767710512e-06
δ: 1
inner:
  elapsed_time: 480485
  iterations: 29866
  linesearch_failures: 2967
  lbfgs_failures: 543
  lbfgs_rejected: 0
  τ_1_accepted: 26024
  sum_τ: 26170.140625
  count_τ: 29630
‖Σ‖: 134.72389565247397
‖x‖: 1e+20
‖y‖: 3474685771.3898354
f: -1.0000000000000001e+37
counters:
  f: 104192
  grad_f: 107899
  g: 134241
  grad_g_prod: 107899
  grad_gi: 0
  hess_L_prod: 0
  hess_L: 0
